# Force and moment coefficients
# dragDir     : (0.000000e+00 0.000000e+00 1.000000e+00)
# sideDir     : (1.000000e+00 0.000000e+00 0.000000e+00)
# liftDir     : (0.000000e+00 1.000000e+00 0.000000e+00)
# rollAxis    : (0.000000e+00 0.000000e+00 1.000000e+00)
# pitchAxis   : (1.000000e+00 0.000000e+00 0.000000e+00)
# yawAxis     : (0.000000e+00 1.000000e+00 0.000000e+00)
# magUInf     : 1.000000e+01
# lRef        : 1.500000e-01
# Aref        : 4.000000e-01
# CofR        : (0.000000e+00 0.000000e+00 0.000000e+00)
#
# Time        	Cd            	Cd(f)         	Cd(r)         	Cl            	Cl(f)         	Cl(r)         	CmPitch       	CmRoll        	CmYaw         	Cs            	Cs(f)         	Cs(r)         
0.000885538   	-3.565253e-03	-2.092469e-03	-1.472783e-03	-3.451400e-04	-9.201602e-04	5.750203e-04	-7.475902e-04	-3.098431e-04	2.447485e-03	2.688522e-04	2.581911e-03	-2.313058e-03
0.00162354    	-3.910250e-03	-2.801229e-03	-1.109021e-03	-1.084537e-03	-1.845442e-03	7.609049e-04	-1.303173e-03	-8.461037e-04	2.364079e-03	6.229642e-04	2.675561e-03	-2.052597e-03
0.00245901    	-3.275997e-03	-2.542302e-03	-7.336951e-04	-1.095390e-03	-1.962993e-03	8.676037e-04	-1.415298e-03	-9.043037e-04	1.702347e-03	8.196707e-04	2.112183e-03	-1.292512e-03
0.00353028    	-2.145575e-03	-1.503163e-03	-6.424120e-04	-2.932264e-04	-1.155785e-03	8.625587e-04	-1.009172e-03	-4.303753e-04	9.842110e-04	3.003408e-04	1.134381e-03	-8.340406e-04
0.003992006191843	-4.544501e+19	1.843401e+20	-2.297851e+20	2.883370e+20	1.672861e+20	1.210508e+20	2.311765e+19	2.070626e+20	5.929952e+19	-2.758180e+20	-7.860950e+19	-1.972085e+20
0.003992006191845	-9.048142e+48	3.670229e+49	-4.575043e+49	5.740817e+49	3.330683e+49	2.410134e+49	4.602747e+48	4.122636e+49	1.180659e+49	-5.491564e+49	-1.565123e+49	-3.926441e+49
0.003992006191845	-1.801494e+78	7.307461e+78	-9.108955e+78	1.143002e+79	6.631422e+78	4.798600e+78	9.164114e+77	8.208208e+78	2.350703e+78	-1.093376e+79	-3.116175e+78	-7.817582e+78
0.003992006191845	-3.586791e+107	1.454923e+108	-1.813602e+108	2.275728e+108	1.320323e+108	9.554058e+107	1.824584e+107	1.634262e+108	4.680273e+107	-2.176921e+108	-6.204334e+107	-1.556488e+108
