# Force and moment coefficients
# dragDir     : (0.000000e+00 0.000000e+00 1.000000e+00)
# sideDir     : (1.000000e+00 0.000000e+00 0.000000e+00)
# liftDir     : (0.000000e+00 1.000000e+00 0.000000e+00)
# rollAxis    : (0.000000e+00 0.000000e+00 1.000000e+00)
# pitchAxis   : (1.000000e+00 0.000000e+00 0.000000e+00)
# yawAxis     : (0.000000e+00 1.000000e+00 0.000000e+00)
# magUInf     : 1.000000e+01
# lRef        : 1.500000e-01
# Aref        : 4.000000e-01
# CofR        : (0.000000e+00 0.000000e+00 0.000000e+00)
#
# Time        	Cd            	Cd(f)         	Cd(r)         	Cl            	Cl(f)         	Cl(r)         	CmPitch       	CmRoll        	CmYaw         	Cs            	Cs(f)         	Cs(r)         
0.00100351    	-1.086780e-03	-6.061594e-04	-4.806204e-04	-5.742034e-05	-1.689798e-04	1.115594e-04	-1.402696e-04	-6.276953e-05	7.753275e-04	7.658320e-05	8.136191e-04	-7.370359e-04
0.00199747    	-1.434562e-03	-9.514238e-04	-4.831384e-04	-2.609421e-04	-4.278344e-04	1.668923e-04	-2.973633e-04	-2.341427e-04	9.812701e-04	1.510504e-04	1.056795e-03	-9.057449e-04
0.00299898    	-1.531080e-03	-1.042003e-03	-4.890772e-04	-3.077707e-04	-5.663456e-04	2.585749e-04	-4.124602e-04	-2.764630e-04	9.964573e-04	1.924243e-04	1.092669e-03	-9.002452e-04
0.00400035    	-1.549477e-03	-1.056809e-03	-4.926683e-04	-3.002683e-04	-6.485251e-04	3.482568e-04	-4.983910e-04	-2.820702e-04	9.530628e-04	2.154396e-04	1.060783e-03	-8.453430e-04
0.00500388    	-1.484560e-03	-1.012851e-03	-4.717086e-04	-2.748861e-04	-6.852385e-04	4.103524e-04	-5.477955e-04	-2.705712e-04	8.609968e-04	2.277960e-04	9.748948e-04	-7.470988e-04
0.00600748    	-1.368464e-03	-9.250873e-04	-4.433768e-04	-2.310914e-04	-6.749835e-04	4.438921e-04	-5.594378e-04	-2.408552e-04	7.482025e-04	2.219075e-04	8.591562e-04	-6.372487e-04
0.006998      	-1.213152e-03	-7.882318e-04	-4.249198e-04	-1.524678e-04	-6.083196e-04	4.558518e-04	-5.320857e-04	-1.816560e-04	6.306263e-04	1.823098e-04	7.217812e-04	-5.394714e-04
0.0080142     	-1.033219e-03	-6.546331e-04	-3.785856e-04	-9.296912e-05	-5.245599e-04	4.315908e-04	-4.780753e-04	-1.380238e-04	5.101579e-04	1.444605e-04	5.823882e-04	-4.379276e-04
0.00900951    	-8.383762e-04	-4.933526e-04	-3.450236e-04	-2.043921e-05	-4.083150e-04	3.878758e-04	-3.980954e-04	-7.416450e-05	3.996626e-04	7.963632e-05	4.394808e-04	-3.598445e-04
0.00998878    	-6.389161e-04	-3.245669e-04	-3.143492e-04	5.036519e-05	-2.771999e-04	3.275650e-04	-3.023825e-04	-5.108876e-06	2.998009e-04	5.117888e-06	3.023598e-04	-2.972419e-04
0.0110076     	-4.298311e-04	-1.565414e-04	-2.732897e-04	1.064621e-04	-1.406242e-04	2.470863e-04	-1.938552e-04	5.837417e-05	2.029971e-04	-6.625382e-05	1.698702e-04	-2.361240e-04
0.0120225     	-2.362852e-04	-1.603002e-06	-2.346822e-04	1.525281e-04	-1.290938e-05	1.654375e-04	-8.917343e-05	1.165396e-04	1.204855e-04	-1.315748e-04	5.469808e-05	-1.862729e-04
0.0130041     	-8.653067e-05	1.190618e-04	-2.055925e-04	1.869800e-04	8.559579e-05	1.013842e-04	-7.894199e-06	1.623272e-04	5.975004e-05	-1.855177e-04	-3.300882e-05	-1.525089e-04
0.0140289     	-4.643479e-05	6.406428e-05	-1.104991e-04	1.104592e-04	5.266034e-05	5.779887e-05	-2.569266e-06	8.728168e-05	3.373270e-05	-1.060935e-04	-1.931404e-05	-8.677943e-05
0.015004      	-1.187235e-04	-2.753561e-05	-9.118793e-05	5.142083e-05	-1.716795e-05	6.858879e-05	-4.287837e-05	3.182616e-05	6.727336e-05	-3.523239e-05	4.965717e-05	-8.488956e-05
0.0159801     	-2.222461e-04	-7.112480e-05	-1.511213e-04	5.686166e-05	-5.138469e-05	1.082463e-04	-7.981551e-05	3.999826e-05	1.314785e-04	-2.591908e-05	1.185189e-04	-1.444380e-04
0.0169979     	-3.539191e-04	-9.386877e-05	-2.600503e-04	1.071096e-04	-6.233895e-05	1.694485e-04	-1.158937e-04	8.309079e-05	2.231743e-04	-4.322573e-05	2.015615e-04	-2.447872e-04
0.0180137     	-5.253081e-04	-1.400534e-04	-3.852547e-04	1.602841e-04	-7.604210e-05	2.363262e-04	-1.561842e-04	1.226007e-04	3.450107e-04	-4.834986e-05	3.208357e-04	-3.691856e-04
0.018986      	-6.967653e-04	-1.877180e-04	-5.090473e-04	2.035053e-04	-7.978069e-05	2.832860e-04	-1.815333e-04	1.606646e-04	4.712193e-04	-4.117635e-05	4.506311e-04	-4.918075e-04
0.019989      	-8.504459e-04	-2.484823e-04	-6.019637e-04	2.059470e-04	-8.235637e-05	2.883034e-04	-1.853299e-04	1.767407e-04	5.872499e-04	-1.292684e-05	5.807864e-04	-5.937133e-04
0.0209925     	-9.792667e-04	-3.056785e-04	-6.735882e-04	1.982014e-04	-6.352516e-05	2.617266e-04	-1.626259e-04	1.839549e-04	6.874331e-04	1.594209e-05	6.954042e-04	-6.794621e-04
0.0220075     	-1.086070e-03	-4.071909e-04	-6.788786e-04	1.073088e-04	-7.288685e-05	1.801957e-04	-1.265413e-04	1.358439e-04	7.670186e-04	6.095773e-05	7.974974e-04	-7.365397e-04
0.0230019     	-1.147629e-03	-5.279496e-04	-6.196797e-04	-2.604007e-05	-8.699197e-05	6.095190e-05	-7.397194e-05	4.586506e-05	8.056095e-04	8.353648e-05	8.473778e-04	-7.638413e-04
0.0239987     	-1.262783e-03	-6.816514e-04	-5.811313e-04	-1.424431e-04	-7.980405e-05	-6.263908e-05	-8.582482e-06	-5.026006e-05	8.765075e-04	7.769380e-05	9.153544e-04	-8.376606e-04
0.0250109     	-1.535686e-03	-7.725964e-04	-7.630901e-04	-8.646130e-05	6.182350e-05	-1.482848e-04	1.050541e-04	-4.753162e-06	1.058904e-03	7.295027e-05	1.095379e-03	-1.022428e-03
0.0259929     	-1.731727e-03	-6.676927e-04	-1.064035e-03	2.106154e-04	3.823350e-04	-1.717195e-04	2.770272e-04	1.981709e-04	1.175236e-03	1.146355e-04	1.232554e-03	-1.117918e-03
0.0270007     	-1.828428e-03	-5.933724e-04	-1.235056e-03	3.716766e-04	6.178879e-04	-2.462114e-04	4.320496e-04	3.208416e-04	1.195550e-03	1.737078e-04	1.282404e-03	-1.108696e-03
0.0280073     	-1.808858e-03	-5.494323e-04	-1.259425e-03	4.158208e-04	7.516754e-04	-3.358546e-04	5.437650e-04	3.549965e-04	1.127552e-03	2.224304e-04	1.238767e-03	-1.016337e-03
0.0289963     	-1.720288e-03	-5.177923e-04	-1.202495e-03	3.792638e-04	7.977566e-04	-4.184928e-04	6.081247e-04	3.423515e-04	1.017678e-03	2.464375e-04	1.140897e-03	-8.944595e-04
0.0300032     	-1.595137e-03	-4.861463e-04	-1.108990e-03	3.243116e-04	8.002076e-04	-4.758960e-04	6.380518e-04	3.114220e-04	8.904338e-04	2.518187e-04	1.016343e-03	-7.645245e-04
0.0309919     	-1.443132e-03	-4.663333e-04	-9.767984e-04	2.347134e-04	7.462566e-04	-5.115432e-04	6.288999e-04	2.552326e-04	7.614771e-04	2.239685e-04	8.734613e-04	-6.494928e-04
0.0319963     	-1.266927e-03	-4.418771e-04	-8.250495e-04	1.427969e-04	6.594835e-04	-5.166866e-04	5.880851e-04	1.915862e-04	6.329865e-04	1.785746e-04	7.222738e-04	-5.436992e-04
0.0330025     	-1.077985e-03	-4.031290e-04	-6.748564e-04	7.654301e-05	5.618051e-04	-4.852621e-04	5.235336e-04	1.358637e-04	5.103457e-04	1.316311e-04	5.761613e-04	-4.445302e-04
0.0339901     	-8.719503e-04	-3.662718e-04	-5.056785e-04	2.934563e-06	4.344589e-04	-4.315244e-04	4.329917e-04	6.970334e-05	3.973355e-04	6.484608e-05	4.297585e-04	-3.649125e-04
0.0350011     	-6.592185e-04	-3.263915e-04	-3.328270e-04	-6.213176e-05	2.950232e-04	-3.571550e-04	3.260891e-04	3.217754e-06	2.936769e-04	-5.952828e-06	2.907004e-04	-2.966533e-04
0.0359953     	-4.476692e-04	-2.824517e-04	-1.652175e-04	-1.136108e-04	1.550899e-04	-2.687007e-04	2.118953e-04	-5.861707e-05	2.002470e-04	-7.350676e-05	1.634937e-04	-2.370004e-04
0.0369825     	-2.535309e-04	-2.473885e-04	-6.142434e-06	-1.629732e-04	2.051286e-05	-1.834861e-04	1.019995e-04	-1.206230e-04	1.227171e-04	-1.423448e-04	5.154470e-05	-1.938895e-04
0.0379902     	-9.236180e-05	-2.147074e-04	1.223456e-04	-1.967105e-04	-8.681755e-05	-1.098930e-04	1.153771e-05	-1.685265e-04	6.093973e-05	-1.958635e-04	-3.699200e-05	-1.588715e-04
0.0389924     	-5.090096e-05	-1.116037e-04	6.070278e-05	-1.103091e-04	-4.928950e-05	-6.101962e-05	5.865063e-06	-8.615326e-05	3.422786e-05	-1.075467e-04	-1.954550e-05	-8.800121e-05
0.0400246     	-1.260046e-04	-9.481834e-05	-3.118628e-05	-5.252199e-05	2.314203e-05	-7.566402e-05	4.940303e-05	-3.181603e-05	6.874832e-05	-3.553958e-05	5.097854e-05	-8.651811e-05
0.0410111     	-2.376180e-04	-1.597069e-04	-7.791104e-05	-5.809398e-05	6.335021e-05	-1.214442e-04	9.239720e-05	-4.089794e-05	1.360886e-04	-2.507986e-05	1.235487e-04	-1.486286e-04
0.0420006     	-3.754096e-04	-2.857788e-04	-8.963072e-05	-1.299838e-04	6.597272e-05	-1.959566e-04	1.309646e-04	-9.807405e-05	2.310385e-04	-5.864247e-05	2.017172e-04	-2.603597e-04
0.0430035     	-5.474373e-04	-4.115535e-04	-1.358838e-04	-1.865680e-04	8.181927e-05	-2.683873e-04	1.751033e-04	-1.378349e-04	3.498228e-04	-6.412968e-05	3.177579e-04	-3.818876e-04
0.0439872     	-7.246605e-04	-5.257893e-04	-1.988712e-04	-2.232419e-04	9.556589e-05	-3.188077e-04	2.071868e-04	-1.634590e-04	4.745412e-04	-5.233093e-05	4.483758e-04	-5.007067e-04
0.0450044     	-8.981378e-04	-6.422442e-04	-2.558936e-04	-2.510179e-04	9.127896e-05	-3.422969e-04	2.167879e-04	-1.931753e-04	6.026951e-04	-3.391167e-05	5.857393e-04	-6.196510e-04
0.0459906     	-1.057295e-03	-7.739891e-04	-2.833063e-04	-3.176781e-04	3.483655e-05	-3.525147e-04	1.936756e-04	-2.453414e-04	7.237183e-04	-3.154777e-05	7.079444e-04	-7.394922e-04
0.0469902     	-1.219457e-03	-9.097999e-04	-3.096571e-04	-3.942077e-04	-5.309548e-05	-3.411122e-04	1.440084e-04	-3.000714e-04	8.440534e-04	-1.847501e-05	8.348159e-04	-8.532909e-04
0.0480098     	-1.341717e-03	-1.033767e-03	-3.079502e-04	-4.849453e-04	-1.807997e-04	-3.041455e-04	6.167290e-05	-3.629082e-04	9.349102e-04	6.624846e-06	9.382227e-04	-9.315978e-04
0.0489993     	-1.397954e-03	-1.071168e-03	-3.267860e-04	-5.003185e-04	-2.794193e-04	-2.208992e-04	-2.926004e-05	-3.721908e-04	9.700531e-04	5.066223e-05	9.953842e-04	-9.447220e-04
0.0500018     	-1.387679e-03	-1.035516e-03	-3.521635e-04	-4.389444e-04	-3.364566e-04	-1.024879e-04	-1.169843e-04	-3.416762e-04	9.522634e-04	9.477837e-05	9.996525e-04	-9.048742e-04
0.051004      	-1.350823e-03	-1.002408e-03	-3.484146e-04	-4.108039e-04	-4.088331e-04	-1.970750e-06	-2.034312e-04	-3.269967e-04	9.097650e-04	1.320561e-04	9.757931e-04	-8.437370e-04
0.0519905     	-1.279411e-03	-9.290854e-04	-3.503252e-04	-3.353852e-04	-4.373015e-04	1.019162e-04	-2.696088e-04	-2.893801e-04	8.419155e-04	1.532271e-04	9.185291e-04	-7.653020e-04
0.053         	-1.203908e-03	-8.455563e-04	-3.583521e-04	-2.526067e-04	-4.484282e-04	1.958214e-04	-3.221248e-04	-2.436021e-04	7.667544e-04	1.586217e-04	8.460652e-04	-6.874435e-04
0.0539991     	-1.127859e-03	-7.339968e-04	-3.938619e-04	-1.242531e-04	-4.143102e-04	2.900571e-04	-3.521837e-04	-1.700674e-04	6.954428e-04	1.297157e-04	7.603006e-04	-6.305850e-04
0.0550007     	-1.033233e-03	-6.200825e-04	-4.131507e-04	-2.502677e-05	-3.772884e-04	3.522616e-04	-3.647750e-04	-1.034659e-04	6.136771e-04	8.606133e-05	6.567077e-04	-5.706464e-04
0.0559906     	-9.248257e-04	-4.731153e-04	-4.517104e-04	9.175994e-05	-3.054574e-04	3.972173e-04	-3.513373e-04	-1.070242e-05	5.308372e-04	8.172000e-06	5.349232e-04	-5.267512e-04
0.0570088     	-8.142823e-04	-3.286171e-04	-4.856652e-04	1.893261e-04	-2.294808e-04	4.188069e-04	-3.241438e-04	7.852407e-05	4.534584e-04	-7.993713e-05	4.134898e-04	-4.934269e-04
0.0580041     	-7.143074e-04	-2.365973e-04	-4.777101e-04	2.250222e-04	-1.840715e-04	4.090937e-04	-2.965826e-04	1.205564e-04	3.861149e-04	-1.311208e-04	3.205545e-04	-4.516753e-04
0.0590082     	-6.105590e-04	-1.635394e-04	-4.470196e-04	2.372320e-04	-1.414732e-04	3.787052e-04	-2.600892e-04	1.417401e-04	3.223547e-04	-1.642830e-04	2.402132e-04	-4.044962e-04
0.0600057     	-4.866198e-04	-9.056909e-05	-3.960507e-04	2.386404e-04	-8.633111e-05	3.249715e-04	-2.056513e-04	1.527408e-04	2.539828e-04	-1.848717e-04	1.615470e-04	-3.464187e-04
0.0610172     	-3.441905e-04	5.422609e-06	-3.496132e-04	2.485001e-04	-8.529445e-06	2.570295e-04	-1.327795e-04	1.775179e-04	1.844774e-04	-2.135998e-04	7.767751e-05	-2.912773e-04
0.0620105     	-2.036455e-04	1.082670e-04	-3.119125e-04	2.655291e-04	7.555909e-05	1.899700e-04	-5.720547e-05	2.100898e-04	1.231753e-04	-2.475272e-04	-5.883152e-07	-2.469389e-04
0.0630094     	-6.835642e-05	1.952370e-04	-2.635934e-04	2.738579e-04	1.486811e-04	1.251768e-04	1.175215e-05	2.294152e-04	6.530090e-05	-2.715796e-04	-7.048892e-05	-2.010907e-04
0.0640219     	-3.315282e-05	1.113567e-04	-1.445095e-04	1.670509e-04	9.278405e-05	7.426685e-05	9.258598e-06	1.279331e-04	3.597469e-05	-1.599677e-04	-4.400918e-05	-1.159586e-04
0.0649735     	-9.109344e-05	1.999914e-05	-1.110926e-04	9.802278e-05	2.181210e-05	7.621068e-05	-2.719929e-05	6.554586e-05	5.971185e-05	-7.848817e-05	2.046777e-05	-9.895594e-05
0.0659947     	-1.730971e-04	-2.048269e-05	-1.526144e-04	9.330641e-05	-1.080541e-05	1.041118e-04	-5.745861e-05	6.606584e-05	1.093793e-04	-5.826320e-05	8.024766e-05	-1.385109e-04
0.0669894     	-2.651755e-04	-3.928070e-05	-2.258948e-04	1.240195e-04	-2.136761e-05	1.453871e-04	-8.337734e-05	9.330707e-05	1.729963e-04	-6.109323e-05	1.424497e-04	-2.035429e-04
0.067997      	-3.897276e-04	-7.378409e-05	-3.159435e-04	1.601117e-04	-3.376236e-05	1.938741e-04	-1.138182e-04	1.210797e-04	2.602564e-04	-5.772212e-05	2.313954e-04	-2.891175e-04
0.0689885     	-5.257117e-04	-1.187432e-04	-4.069685e-04	1.880676e-04	-4.127005e-05	2.293376e-04	-1.353038e-04	1.441126e-04	3.558729e-04	-4.403151e-05	3.338571e-04	-3.778886e-04
0.0699898     	-6.475753e-04	-1.670468e-04	-4.805284e-04	1.941686e-04	-4.186525e-05	2.360339e-04	-1.389496e-04	1.567408e-04	4.455949e-04	-2.020659e-05	4.354916e-04	-4.556982e-04
0.0709907     	-7.624513e-04	-1.882123e-04	-5.742390e-04	2.411985e-04	4.033356e-06	2.371652e-04	-1.165659e-04	1.930133e-04	5.326436e-04	-1.469418e-05	5.252965e-04	-5.399907e-04
0.072         	-8.807922e-04	-2.366298e-04	-6.441624e-04	2.471797e-04	4.099269e-05	2.061870e-04	-8.259714e-05	2.037663e-04	6.192136e-04	1.168724e-05	6.250572e-04	-6.133700e-04
0.0730054     	-9.701905e-04	-2.721395e-04	-6.980510e-04	2.538481e-04	9.948023e-05	1.543679e-04	-2.744384e-05	2.129558e-04	6.835570e-04	3.514322e-05	7.011286e-04	-6.659854e-04
0.0740018     	-1.043173e-03	-3.192720e-04	-7.239010e-04	2.366706e-04	1.563480e-04	8.032257e-05	3.801274e-05	2.023145e-04	7.299926e-04	6.004600e-05	7.600156e-04	-6.999696e-04
0.0750018     	-1.125606e-03	-3.793334e-04	-7.462721e-04	1.869070e-04	2.023193e-04	-1.541225e-05	1.088658e-04	1.834693e-04	7.767586e-04	8.395739e-05	8.187373e-04	-7.347799e-04
0.0760098     	-1.162828e-03	-3.788994e-04	-7.839282e-04	2.090714e-04	3.015032e-04	-9.243178e-05	1.969675e-04	2.025144e-04	7.921277e-04	1.071435e-04	8.456994e-04	-7.385559e-04
0.0769924     	-1.175420e-03	-3.846035e-04	-7.908166e-04	1.871124e-04	3.669403e-04	-1.798279e-04	2.733841e-04	2.031065e-04	7.788578e-04	1.263649e-04	8.420403e-04	-7.156754e-04
0.0779943     	-1.166581e-03	-3.539794e-04	-8.126015e-04	2.042755e-04	4.497086e-04	-2.454331e-04	3.475709e-04	2.293110e-04	7.408350e-04	1.504163e-04	8.160431e-04	-6.656268e-04
0.07901       	-1.116216e-03	-4.100614e-04	-7.061551e-04	7.453127e-05	4.186469e-04	-3.441156e-04	3.813813e-04	1.480468e-04	6.833960e-04	1.149018e-04	7.408469e-04	-6.259451e-04
0.0800055     	-1.035798e-03	-4.352247e-04	-6.005735e-04	-1.994944e-05	3.843884e-04	-4.043379e-04	3.943631e-04	8.267439e-05	6.077366e-04	6.818699e-05	6.418301e-04	-5.736431e-04
0.0809886     	-9.331165e-04	-4.692107e-04	-4.639057e-04	-1.256359e-04	3.171921e-04	-4.428280e-04	3.800101e-04	-2.652511e-06	5.261985e-04	-7.195473e-06	5.226007e-04	-5.297962e-04
0.0819984     	-8.215730e-04	-4.969832e-04	-3.245897e-04	-2.105955e-04	2.442661e-04	-4.548617e-04	3.495639e-04	-8.619674e-05	4.467193e-04	-9.124033e-05	4.010991e-04	-4.923395e-04
0.0829883     	-7.227298e-04	-4.937568e-04	-2.289730e-04	-2.480933e-04	1.935721e-04	-4.416654e-04	3.176188e-04	-1.323919e-04	3.795977e-04	-1.476499e-04	3.057728e-04	-4.534227e-04
0.0839896     	-6.179056e-04	-4.567595e-04	-1.611461e-04	-2.522855e-04	1.521224e-04	-4.044079e-04	2.782652e-04	-1.478067e-04	3.149127e-04	-1.746168e-04	2.276043e-04	-4.022212e-04
0.0849846     	-4.955487e-04	-4.104788e-04	-8.506994e-05	-2.581537e-04	9.095282e-05	-3.491066e-04	2.200297e-04	-1.627044e-04	2.496366e-04	-2.009279e-04	1.491727e-04	-3.501006e-04
0.085993      	-3.546161e-04	-3.583553e-04	3.739173e-06	-2.573192e-04	1.664170e-05	-2.739609e-04	1.453013e-04	-1.810472e-04	1.820421e-04	-2.215796e-04	7.125225e-05	-2.928319e-04
0.0870093     	-2.104557e-04	-3.234124e-04	1.129568e-04	-2.787368e-04	-7.588941e-05	-2.028474e-04	6.347898e-05	-2.181846e-04	1.230324e-04	-2.611367e-04	-7.536012e-06	-2.536007e-04
0.0879933     	-7.465110e-05	-2.741721e-04	1.995210e-04	-2.839101e-04	-1.505687e-04	-1.333414e-04	-8.613680e-06	-2.368465e-04	6.758606e-05	-2.821734e-04	-7.350066e-05	-2.086728e-04
0.0889839     	-3.632926e-05	-1.454376e-04	1.091083e-04	-1.671549e-04	-9.065052e-05	-7.650439e-05	-7.073064e-06	-1.272729e-04	3.645296e-05	-1.606628e-04	-4.387846e-05	-1.167844e-04
0.0899975     	-9.721814e-05	-1.137597e-04	1.654160e-05	-9.814601e-05	-1.665301e-05	-8.149300e-05	3.241999e-05	-6.515067e-05	6.088347e-05	-7.736484e-05	2.220105e-05	-9.956589e-05
0.091018      	-1.840457e-04	-1.585274e-04	-2.551831e-05	-9.298889e-05	2.032399e-05	-1.133129e-04	6.681843e-05	-6.650454e-05	1.119537e-04	-5.688448e-05	8.351145e-05	-1.403959e-04
0.0920162     	-2.806223e-04	-2.445317e-04	-3.609059e-05	-1.409160e-04	2.424059e-05	-1.651566e-04	9.469861e-05	-1.042205e-04	1.791346e-04	-7.116206e-05	1.435535e-04	-2.147156e-04
0.0929981     	-4.021212e-04	-3.393229e-04	-6.279836e-05	-1.860861e-04	3.281035e-05	-2.188964e-04	1.258534e-04	-1.382622e-04	2.634959e-04	-7.256510e-05	2.272133e-04	-2.997784e-04
0.0940042     	-5.360253e-04	-4.222196e-04	-1.138057e-04	-2.076299e-04	4.766809e-05	-2.552980e-04	1.514831e-04	-1.542070e-04	3.568852e-04	-5.285163e-05	3.304594e-04	-3.833110e-04
0.0949929     	-6.609945e-04	-5.042583e-04	-1.567362e-04	-2.260148e-04	4.572905e-05	-2.717439e-04	1.587365e-04	-1.737610e-04	4.484502e-04	-3.317683e-05	4.318618e-04	-4.650386e-04
0.0960107     	-7.777764e-04	-6.126771e-04	-1.650993e-04	-2.926278e-04	-8.792451e-06	-2.838354e-04	1.375215e-04	-2.237889e-04	5.388693e-04	-2.856792e-05	5.245854e-04	-5.531533e-04
0.0970124     	-8.885320e-04	-6.700946e-04	-2.184374e-04	-2.876130e-04	-3.560857e-05	-2.520044e-04	1.081979e-04	-2.258286e-04	6.205638e-04	7.717365e-06	6.244225e-04	-6.167051e-04
0.0980113     	-9.679050e-04	-7.532009e-04	-2.147041e-04	-3.405783e-04	-1.211060e-04	-2.194724e-04	4.918319e-05	-2.692484e-04	6.822594e-04	2.710676e-05	6.958128e-04	-6.687060e-04
0.0990041     	-1.016827e-03	-7.510004e-04	-2.658266e-04	-2.947092e-04	-1.572360e-04	-1.374732e-04	-9.881383e-06	-2.425869e-04	7.118802e-04	6.093753e-05	7.423489e-04	-6.814114e-04
0.10001       	-1.037821e-03	-6.763089e-04	-3.615116e-04	-1.385715e-04	-1.298769e-04	-8.694589e-06	-6.059115e-05	-1.573987e-04	7.190058e-04	8.373187e-05	7.608718e-04	-6.771399e-04
0.101011      	-1.045192e-03	-7.386703e-04	-3.065213e-04	-2.342873e-04	-2.643506e-04	3.006336e-05	-1.472070e-04	-2.160745e-04	7.123932e-04	1.098242e-04	7.673053e-04	-6.574811e-04
0.101991      	-1.025361e-03	-6.908850e-04	-3.344763e-04	-1.561778e-04	-2.804459e-04	1.242681e-04	-2.023570e-04	-1.782044e-04	6.858344e-04	1.163286e-04	7.439987e-04	-6.276701e-04
0.102992      	-9.861215e-04	-6.646528e-04	-3.214687e-04	-1.321409e-04	-3.215758e-04	1.894348e-04	-2.555053e-04	-1.715921e-04	6.367430e-04	1.219072e-04	6.976966e-04	-5.757894e-04
0.104006      	-9.298483e-04	-5.630821e-04	-3.667662e-04	-1.633444e-05	-2.903932e-04	2.740588e-04	-2.822260e-04	-9.815799e-05	5.830674e-04	8.381724e-05	6.249760e-04	-5.411588e-04
0.104998      	-8.574828e-04	-4.451262e-04	-4.123567e-04	1.008999e-04	-2.393539e-04	3.402537e-04	-2.898038e-04	-1.638477e-05	5.227132e-04	2.000983e-05	5.327181e-04	-5.127083e-04
0.106007      	-7.719856e-04	-3.214072e-04	-4.505784e-04	1.967547e-04	-1.835868e-04	3.803415e-04	-2.819642e-04	6.458558e-05	4.572185e-04	-5.803053e-05	4.282033e-04	-4.862338e-04
0.107014      	-6.830782e-04	-1.864722e-04	-4.966061e-04	2.890284e-04	-1.150269e-04	4.040554e-04	-2.595412e-04	1.550669e-04	3.968758e-04	-1.540626e-04	3.198445e-04	-4.739071e-04
0.107992      	-6.057672e-04	-1.139983e-04	-4.917689e-04	3.129944e-04	-8.363836e-05	3.966328e-04	-2.401356e-04	1.888853e-04	3.435622e-04	-2.019378e-04	2.425933e-04	-4.445310e-04
0.10902       	-5.219895e-04	-5.548146e-05	-4.665080e-04	3.168055e-04	-5.360622e-05	3.704117e-04	-2.120090e-04	2.055133e-04	2.913308e-04	-2.347599e-04	1.739508e-04	-4.087107e-04
0.110008      	-4.244547e-04	-7.585295e-06	-4.168694e-04	3.023729e-04	-1.925762e-05	3.216305e-04	-1.704441e-04	2.046421e-04	2.351687e-04	-2.461574e-04	1.120899e-04	-3.582474e-04
0.111017      	-3.032927e-04	6.798171e-05	-3.712744e-04	3.006489e-04	4.272568e-05	2.579232e-04	-1.075988e-04	2.196281e-04	1.741334e-04	-2.662887e-04	4.098900e-05	-3.072777e-04
0.111995      	-1.816491e-04	1.552367e-04	-3.368858e-04	3.113201e-04	1.146057e-04	1.967143e-04	-4.105430e-05	2.460612e-04	1.207274e-04	-2.937879e-04	-2.616661e-05	-2.676213e-04
0.113019      	-5.514558e-05	2.239675e-04	-2.791131e-04	3.040776e-04	1.732148e-04	1.308628e-04	2.117601e-05	2.515403e-04	6.429985e-05	-3.011874e-04	-8.629386e-05	-2.148936e-04
0.113974      	-2.383594e-05	1.278638e-04	-1.516997e-04	1.838139e-04	1.066844e-04	7.712941e-05	1.477751e-05	1.397818e-04	3.390834e-05	-1.760257e-04	-5.410450e-05	-1.219212e-04
0.115006      	-7.804919e-05	3.124040e-05	-1.092896e-04	1.059218e-04	3.113800e-05	7.478377e-05	-2.182288e-05	7.026500e-05	5.431805e-05	-8.523398e-05	1.170106e-05	-9.693504e-05
0.115979      	-1.498719e-04	-6.964422e-06	-1.429075e-04	9.644012e-05	-5.950206e-07	9.703514e-05	-4.881508e-05	6.797152e-05	9.650364e-05	-6.372984e-05	6.463872e-05	-1.283686e-04
0.116994      	-2.317216e-04	-2.918047e-05	-2.025411e-04	1.186634e-04	-1.345809e-05	1.321215e-04	-7.278979e-05	8.668031e-05	1.525370e-04	-5.961962e-05	1.227272e-04	-1.823468e-04
0.118018      	-3.445364e-04	-6.055869e-05	-2.839777e-04	1.511226e-04	-2.511032e-05	1.762329e-04	-1.006716e-04	1.117095e-04	2.312302e-04	-5.483971e-05	2.038103e-04	-2.586500e-04
0.11899       	-4.627570e-04	-9.692432e-05	-3.658327e-04	1.810899e-04	-2.867741e-05	2.097673e-04	-1.192223e-04	1.344542e-04	3.148300e-04	-4.233040e-05	2.936648e-04	-3.359952e-04
0.120005      	-5.721756e-04	-1.422255e-04	-4.299501e-04	1.816026e-04	-3.243902e-05	2.140416e-04	-1.232403e-04	1.438623e-04	3.943760e-04	-1.671539e-05	3.860183e-04	-4.027337e-04
0.120998      	-6.702429e-04	-1.590294e-04	-5.112135e-04	2.227573e-04	8.250781e-06	2.145066e-04	-1.031279e-04	1.760921e-04	4.687919e-04	-1.079451e-05	4.633947e-04	-4.741892e-04
0.122         	-7.740126e-04	-1.952834e-04	-5.787292e-04	2.314378e-04	4.256621e-05	1.888716e-04	-7.315268e-05	1.917229e-04	5.448010e-04	1.258952e-05	5.510957e-04	-5.385062e-04
0.122999      	-8.497601e-04	-2.127363e-04	-6.370238e-04	2.580256e-04	1.070495e-04	1.509762e-04	-2.196335e-05	2.121437e-04	6.002491e-04	3.202965e-05	6.162640e-04	-5.842343e-04
0.123992      	-9.037921e-04	-2.492772e-04	-6.545149e-04	2.386213e-04	1.543223e-04	8.429899e-05	3.501165e-05	2.026188e-04	6.333724e-04	5.852958e-05	6.626372e-04	-6.041076e-04
0.124992      	-9.576717e-04	-3.131612e-04	-6.445105e-04	1.577596e-04	1.688734e-04	-1.111385e-05	8.999363e-05	1.656746e-04	6.615662e-04	7.840782e-05	7.007701e-04	-6.223622e-04
0.126003      	-9.799231e-04	-3.153736e-04	-6.645496e-04	1.669829e-04	2.462727e-04	-7.928988e-05	1.627813e-04	1.745880e-04	6.684077e-04	9.876166e-05	7.177886e-04	-6.190269e-04
0.12701       	-9.726298e-04	-3.407810e-04	-6.318487e-04	1.019973e-04	2.702665e-04	-1.682692e-04	2.192679e-04	1.455339e-04	6.474362e-04	1.057878e-04	7.003301e-04	-5.945423e-04
0.127989      	-9.546780e-04	-3.306521e-04	-6.240259e-04	8.091780e-05	3.129710e-04	-2.320532e-04	2.725121e-04	1.466869e-04	6.129251e-04	1.082917e-04	6.670710e-04	-5.587792e-04
0.129003      	-9.107558e-04	-3.905499e-04	-5.202059e-04	-4.209958e-05	2.772159e-04	-3.193155e-04	2.982657e-04	6.482798e-05	5.671415e-04	6.218004e-05	5.982315e-04	-5.360515e-04
0.129995      	-8.536921e-04	-4.326960e-04	-4.209960e-04	-1.379925e-04	2.414658e-04	-3.794583e-04	3.104621e-04	-5.849989e-06	5.137809e-04	3.039011e-06	5.153004e-04	-5.122614e-04
0.131         	-7.745094e-04	-4.697873e-04	-3.047221e-04	-2.302455e-04	1.874481e-04	-4.176936e-04	3.025708e-04	-8.253257e-05	4.514163e-04	-7.470623e-05	4.140632e-04	-4.887694e-04
0.132004      	-6.891679e-04	-5.011940e-04	-1.879739e-04	-2.980050e-04	1.322904e-04	-4.302955e-04	2.812930e-04	-1.566101e-04	3.900136e-04	-1.580169e-04	3.110051e-04	-4.690221e-04
0.133015      	-6.077020e-04	-5.005179e-04	-1.071840e-04	-3.245996e-04	9.432053e-05	-4.189201e-04	2.566203e-04	-1.966669e-04	3.342083e-04	-2.135324e-04	2.274421e-04	-4.409746e-04
0.134011      	-5.244030e-04	-4.730614e-04	-5.134157e-05	-3.252367e-04	6.316793e-05	-3.884047e-04	2.257863e-04	-2.108599e-04	2.826782e-04	-2.431287e-04	1.611139e-04	-4.042426e-04
0.135005      	-4.261399e-04	-4.247485e-04	-1.391426e-06	-3.131483e-04	2.419692e-05	-3.373452e-04	1.807711e-04	-2.116785e-04	2.280288e-04	-2.564409e-04	9.980834e-05	-3.562492e-04
0.136021      	-3.034707e-04	-3.730858e-04	6.961506e-05	-3.049191e-04	-3.751370e-05	-2.674054e-04	1.149458e-04	-2.213504e-04	1.679307e-04	-2.693997e-04	3.323085e-05	-3.026305e-04
0.137022      	-1.812478e-04	-3.436280e-04	1.623802e-04	-3.203385e-04	-1.164745e-04	-2.038641e-04	4.369480e-05	-2.530041e-04	1.178291e-04	-3.038474e-04	-3.409463e-05	-2.697528e-04
0.13798       	-6.203246e-05	-2.906605e-04	2.286281e-04	-3.130137e-04	-1.744259e-04	-1.385878e-04	-1.791904e-05	-2.596443e-04	6.711199e-05	-3.107986e-04	-8.828732e-05	-2.225113e-04
0.138994      	-2.790437e-05	-1.519754e-04	1.240710e-04	-1.818937e-04	-1.031001e-04	-7.879360e-05	-1.215326e-05	-1.380232e-04	3.489751e-05	-1.754132e-04	-5.280909e-05	-1.226041e-04
0.140008      	-8.239872e-05	-1.111855e-04	2.878679e-05	-1.042427e-04	-2.631828e-05	-7.792440e-05	2.580306e-05	-6.998615e-05	5.432643e-05	-8.444423e-05	1.210431e-05	-9.654854e-05
0.14099       	-1.547097e-04	-1.362095e-04	-1.850019e-05	-8.458959e-05	1.442991e-05	-9.901949e-05	5.672470e-05	-5.885466e-05	9.478628e-05	-5.142316e-05	6.907470e-05	-1.204979e-04
0.142015      	-2.418942e-04	-2.134901e-04	-2.840408e-05	-1.271019e-04	1.864609e-05	-1.457480e-04	8.219703e-05	-9.254302e-05	1.552461e-04	-6.389310e-05	1.232996e-04	-1.871927e-04
0.143011      	-3.520007e-04	-2.950269e-04	-5.697387e-05	-1.617718e-04	3.101293e-05	-1.927848e-04	1.118989e-04	-1.190265e-04	2.306935e-04	-5.946994e-05	2.009586e-04	-2.604285e-04
0.143999      	-4.702048e-04	-3.708923e-04	-9.931254e-05	-1.857103e-04	4.167871e-05	-2.273890e-04	1.345338e-04	-1.357899e-04	3.129165e-04	-4.390446e-05	2.909643e-04	-3.348688e-04
0.145003      	-5.793953e-04	-4.497667e-04	-1.296286e-04	-2.110914e-04	3.360101e-05	-2.446924e-04	1.391467e-04	-1.600690e-04	3.941172e-04	-2.953512e-05	3.793497e-04	-4.088848e-04
0.145989      	-6.779709e-04	-5.286264e-04	-1.493445e-04	-2.416854e-04	3.803637e-06	-2.454891e-04	1.246463e-04	-1.896409e-04	4.687134e-04	-1.529317e-05	4.610669e-04	-4.763600e-04
0.147012      	-7.720298e-04	-5.863240e-04	-1.857058e-04	-2.534464e-04	-3.143927e-05	-2.220071e-04	9.528393e-05	-2.003091e-04	5.395511e-04	1.352373e-05	5.463129e-04	-5.327892e-04
0.148007      	-8.401474e-04	-6.497539e-04	-1.903935e-04	-2.848459e-04	-9.657167e-05	-1.882742e-04	4.585126e-05	-2.296802e-04	5.921114e-04	3.264527e-05	6.084340e-04	-5.757888e-04
0.148996      	-8.827625e-04	-6.501227e-04	-2.326399e-04	-2.455912e-04	-1.284853e-04	-1.171059e-04	-5.689708e-06	-2.087414e-04	6.177789e-04	6.054904e-05	6.480534e-04	-5.875044e-04
0.149998      	-8.997459e-04	-6.346060e-04	-2.651399e-04	-1.941840e-04	-1.592519e-04	-3.493206e-05	-6.215994e-05	-1.847330e-04	6.234840e-04	8.072885e-05	6.638484e-04	-5.831196e-04
0.150996      	-9.234848e-04	-6.307317e-04	-2.927531e-04	-1.728684e-04	-2.104212e-04	3.755281e-05	-1.239870e-04	-1.689893e-04	6.299091e-04	9.627875e-05	6.780485e-04	-5.817697e-04
0.151994      	-9.067184e-04	-5.827268e-04	-3.239916e-04	-8.624989e-05	-2.152343e-04	1.289844e-04	-1.721093e-04	-1.293676e-04	6.093394e-04	9.772286e-05	6.582008e-04	-5.604780e-04
0.15301       	-8.811916e-04	-5.350176e-04	-3.461740e-04	-1.907728e-05	-2.256377e-04	2.065604e-04	-2.160991e-04	-9.442182e-05	5.757285e-04	8.254078e-05	6.169989e-04	-5.344581e-04
0.153989      	-8.407689e-04	-4.638291e-04	-3.769398e-04	6.401713e-05	-2.120413e-04	2.760584e-04	-2.440499e-04	-4.344464e-05	5.334093e-04	4.934063e-05	5.580797e-04	-5.087390e-04
0.154993      	-7.777491e-04	-3.714749e-04	-4.062743e-04	1.457486e-04	-1.838658e-04	3.296144e-04	-2.567401e-04	1.739971e-05	4.798414e-04	-4.649729e-06	4.775165e-04	-4.821662e-04
0.156014      	-7.034730e-04	-2.522246e-04	-4.512484e-04	2.430955e-04	-1.285928e-04	3.716882e-04	-2.501405e-04	9.951191e-05	4.232637e-04	-8.728937e-05	3.796190e-04	-4.669084e-04
0.157004      	-6.241780e-04	-1.287915e-04	-4.953865e-04	3.226345e-04	-6.964110e-05	3.922756e-04	-2.309584e-04	1.832975e-04	3.699911e-04	-1.805726e-04	2.797048e-04	-4.602774e-04
0.157993      	-5.528748e-04	-5.801954e-05	-4.948553e-04	3.479999e-04	-3.923543e-05	3.872354e-04	-2.132354e-04	2.184179e-04	3.216189e-04	-2.317372e-04	2.057503e-04	-4.374874e-04
0.158991      	-4.814866e-04	-1.240374e-05	-4.690829e-04	3.424451e-04	-1.974231e-05	3.621874e-04	-1.909648e-04	2.283396e-04	2.760170e-04	-2.597595e-04	1.461373e-04	-4.058968e-04
0.160009      	-3.918567e-04	3.241975e-05	-4.242764e-04	3.298149e-04	1.245224e-05	3.173626e-04	-1.524552e-04	2.283481e-04	2.243449e-04	-2.734052e-04	8.764233e-05	-3.610475e-04
0.161007      	-2.812363e-04	9.809872e-05	-3.793350e-04	3.236172e-04	6.699209e-05	2.566251e-04	-9.481649e-05	2.387169e-04	1.678262e-04	-2.898329e-04	2.290979e-05	-3.127427e-04
0.162007      	-1.646218e-04	1.810715e-04	-3.456933e-04	3.312179e-04	1.351995e-04	1.960184e-04	-3.040949e-05	2.633824e-04	1.165515e-04	-3.154976e-04	-4.119727e-05	-2.743003e-04
0.162995      	-4.937353e-05	2.386007e-04	-2.879743e-04	3.181424e-04	1.843605e-04	1.337819e-04	2.528928e-05	2.632875e-04	6.413471e-05	-3.159747e-04	-9.385264e-05	-2.221221e-04
0.163961      	-1.825382e-05	1.367014e-04	-1.549552e-04	1.918664e-04	1.138618e-04	7.800454e-05	1.792864e-05	1.458283e-04	3.246954e-05	-1.838832e-04	-5.947205e-05	-1.244111e-04