# Force and moment coefficients
# dragDir     : (0.000000e+00 0.000000e+00 1.000000e+00)
# sideDir     : (1.000000e+00 0.000000e+00 0.000000e+00)
# liftDir     : (0.000000e+00 1.000000e+00 0.000000e+00)
# rollAxis    : (0.000000e+00 0.000000e+00 1.000000e+00)
# pitchAxis   : (1.000000e+00 0.000000e+00 0.000000e+00)
# yawAxis     : (0.000000e+00 1.000000e+00 0.000000e+00)
# magUInf     : 1.000000e+01
# lRef        : 1.500000e-01
# Aref        : 4.000000e-01
# CofR        : (0.000000e+00 0.000000e+00 0.000000e+00)
#
# Time        	Cd            	Cd(f)         	Cd(r)         	Cl            	Cl(f)         	Cl(r)         	CmPitch       	CmRoll        	CmYaw         	Cs            	Cs(f)         	Cs(r)         
0.003992006191845	-3.827234e+136	1.552454e+137	-1.935178e+137	2.428283e+137	1.408831e+137	1.019452e+137	1.946896e+136	1.743816e+137	4.994018e+136	-2.322853e+137	-6.620245e+136	-1.660828e+137
0.003992006191845	-7.620059e+165	3.090951e+166	-3.852957e+166	4.834735e+166	2.804996e+166	2.029739e+166	3.876289e+165	3.471954e+166	9.943138e+165	-4.624822e+166	-1.318097e+166	-3.306725e+166
0.003992006191845	-1.517161e+195	6.154113e+195	-7.671275e+195	9.626004e+195	5.584775e+195	4.041229e+195	7.717727e+194	6.912694e+195	1.979688e+195	-9.208065e+195	-2.624344e+195	-6.583721e+195
0.003992006191845	-3.020682e+224	1.225290e+225	-1.527358e+225	1.916547e+225	1.111934e+225	8.046126e+224	1.536607e+224	1.376324e+225	3.941578e+224	-1.833334e+225	-5.225094e+224	-1.310825e+225
0.003992006191845	-6.014207e+253	2.439564e+254	-3.040984e+254	3.815862e+254	2.213871e+254	1.601991e+254	3.059399e+253	2.740274e+254	7.847720e+253	-3.650186e+254	-1.040321e+254	-2.609865e+254
0.003992006191845	-1.197434e+283	4.857195e+283	-6.054629e+283	7.597419e+283	4.407839e+283	3.189580e+283	6.091292e+282	5.455912e+283	1.562489e+283	-7.267556e+283	-2.071289e+283	-5.196267e+283
